/*--------------------------------*- C++ -*----------------------------------*\
| =========                 |                                                 |
| \\      /  F ield         | OpenFOAM: The Open Source CFD Toolbox           |
|  \\    /   O peration     | Version:  v2412                                 |
|   \\  /    A nd           | Website:  www.openfoam.com                      |
|    \\/     M anipulation  |                                                 |
\*---------------------------------------------------------------------------*/
FoamFile
{
    format      ascii;
    class       volScalarField;
    object      p;
}
// * * * * * * * * * * * * * * * * * * * * * * * * * * * * * * * * * * * * * //

dimensions      [0 2 -2 0 0 0 0];

internalField   uniform 0;

boundaryField
{
    inlet_left
    {
        type zeroGradient;
    }

    inlet_middle
    {
        type zeroGradient;
    }

    inlet_right
    {
        type zeroGradient;
    }

    defaultFaces
    {
        type fixedFluxPressure;
        value $internalField;
    }

    outlet
    {
        type  fixedValue;
        value uniform 0;
    }
}

// ************************************************************************* //
