/*--------------------------------*- C++ -*----------------------------------*\
| =========                 |                                                 |
| \\      /  F ield         | OpenFOAM: The Open Source CFD Toolbox           |
|  \\    /   O peration     | Version:  v2412                                 |
|   \\  /    A nd           | Website:  www.openfoam.com                      |
|    \\/     M anipulation  |                                                 |
\*---------------------------------------------------------------------------*/
FoamFile
{
    version     2.0;
    format      ascii;
    class       volScalarField;
    object      k;
}
// * * * * * * * * * * * * * * * * * * * * * * * * * * * * * * * * * * * * * //

dimensions      [0 2 -2 0 0 0 0];

internalField   uniform 0.0;

boundaryField
{

    inlet
    {
        type        turbulentIntensityKineticEnergyInlet;
        intensity   0.01;               // 1% turbulence
        value       uniform 0.0;        // placeholder
    }

    outlet
    {
        type            inletOutlet;
        value           uniform 0.0;
        inletValue      uniform 0.0; 
    }

    shell
    {
        type            kqRWallFunction;
        value           $internalField;
    }

}


// ************************************************************************* //
