/*--------------------------------*- C++ -*----------------------------------*\
  =========                 |
  \\      /  F ield         | OpenFOAM: The Open Source CFD Toolbox
   \\    /   O peration     | Website:  https://openfoam.org
    \\  /    A nd           | Version:  9
     \\/     M anipulation  |
\*---------------------------------------------------------------------------*/
FoamFile
{
    format      ascii;
    class       volVectorField;
    object      U;
}
// * * * * * * * * * * * * * * * * * * * * * * * * * * * * * * * * * * * * * //

dimensions      [0 1 -1 0 0 0 0];

internalField   uniform (0 0 0);

boundaryField
{
    body
    {
        type            fixedValue;
        value           uniform (0 0 0);
    }
    walls
    {
        type            zeroGradient;
        value           uniform (0 0 0);
    }
    rotor
    {
        type            movingWallVelocity;
        value           uniform (0 0 0);
    }
    "AMIFace.*"
    {
        type            cyclicAMI;
    }
}

// ************************************************************************* //
